quartz1/silica_quartz.data (written by ASE) 

7452 	 atoms 
2  atom types
0.0             30.16669074  xlo xhi
0.0      100.14629536097037  ylo yhi
0.0                      90  zlo zhi


Atoms 

     1   2      28.966848324179924      2.0781880252765541        4.59909615202747
     2   2      1.3140484791799261      2.2759987295482453       2.759456955360803
     3   2      2.3996848316401498                       0     0.91981775869413684
     4   1      29.100222805614152      3.2469431881933812     0.20609293956337008
     5   1     0.23518957657262057      1.8071268372284466      3.8853713328967032
     6   1     0.83127835781323078        3.65430348422777      2.0457321362300367
     7   1      3.3451692528132297     0.69988327059702848      5.3128246504366299
     8   1      1.4474229606141504      1.1072435666314173      1.6335462571032966
     9   1      2.7490804715726203      2.5470599175963526      3.4731854537699629
    10   2      28.966848324179924      2.0781880252765541       10.11801374202747
    11   2      1.3140484791799261      2.2759987295482453      8.2783745453608031
    12   2      2.3996848316401498                       0       6.438735348694137
    13   1      29.100222805614152      3.2469431881933812       5.725010529563372
    14   1     0.23518957657262057      1.8071268372284466      9.4042889228967042
    15   1     0.83127835781323078        3.65430348422777      7.5646497262300372
    16   1      3.3451692528132297     0.69988327059702848      10.831742240436629
    17   1      1.4474229606141504      1.1072435666314173      7.1524638471032986
    18   1      2.7490804715726203      2.5470599175963526      8.9921030437699621
    19   2      28.966848324179924      2.0781880252765541      15.636931332027469
    20   2      1.3140484791799261      2.2759987295482453      13.797292135360802
    21   2      2.3996848316401498                       0      11.957652938694141
    22   1      29.100222805614152      3.2469431881933812      11.243928119563369
    23   1     0.23518957657262057      1.8071268372284466      14.923206512896703
    24   1     0.83127835781323078        3.65430348422777      13.083567316230036
    25   1      3.3451692528132297     0.69988327059702848       16.35065983043663
    26   1      1.4474229606141504      1.1072435666314173      12.671381437103296
    27   1      2.7490804715726203      2.5470599175963526      14.511020633769963
    28   2      28.966848324179924      2.0781880252765541       21.15584892202747
    29   2      1.3140484791799261      2.2759987295482453      19.316209725360803
    30   2      2.3996848316401498                       0      17.476570528694136
    31   1      29.100222805614152      3.2469431881933812      16.762845709563369
    32   1     0.23518957657262057      1.8071268372284466      20.442124102896702
    33   1     0.83127835781323078        3.65430348422777      18.602484906230035
    34   1      3.3451692528132297     0.69988327059702848      21.869577420436627
    35   1      1.4474229606141504      1.1072435666314173      18.190299027103297
    36   1      2.7490804715726203      2.5470599175963526       20.02993822376996
    37   2      28.966848324179924      2.0781880252765541      26.674766512027471
    38   2      1.3140484791799261      2.2759987295482453      24.835127315360804
    39   2      2.3996848316401498                       0      22.995488118694137
    40   1      29.100222805614152      3.2469431881933812      22.281763299563369
    41   1     0.23518957657262057      1.8071268372284466      25.961041692896707
    42   1     0.83127835781323078        3.65430348422777      24.121402496230044
    43   1      3.3451692528132297     0.69988327059702848      27.388495010436635
    44   1      1.4474229606141504      1.1072435666314173      23.709216617103298
    45   1      2.7490804715726203      2.5470599175963526      25.548855813769968
    46   2      28.966848324179924      2.0781880252765541      32.193684102027468
    47   2      1.3140484791799261      2.2759987295482453      30.354044905360805
    48   2      2.3996848316401498                       0      28.514405708694138
    49   1      29.100222805614152      3.2469431881933812       27.80068088956337
    50   1     0.23518957657262057      1.8071268372284466      31.479959282896704
    51   1     0.83127835781323078        3.65430348422777      29.640320086230037
    52   1      3.3451692528132297     0.69988327059702848      32.907412600436629
    53   1      1.4474229606141504      1.1072435666314173      29.228134207103299
    54   1      2.7490804715726203      2.5470599175963526      31.067773403769962
    55   2      26.452957429179929      6.4323747801013527        4.59909615202747
    56   2      28.966848324179931      6.6301854843730448       2.759456955360803
    57   2      30.052484676640152      4.3541867548247986     0.91981775869413684
    58   1      26.586331910614152      7.6011299430181793     0.20609293956337008
    59   1      27.887989421572623      6.1613135920532445      3.8853713328967032
    60   1      28.484078202813233      8.0084902390525681      2.0457321362300367
    61   1     0.83127835781323101      5.0540700254218276      5.3128246504366299
    62   1      29.100222805614152      5.4614303214562163      1.6335462571032966
    63   1     0.23518957657262174      6.9012466724211512      3.4731854537699629
    64   2      26.452957429179929      6.4323747801013527       10.11801374202747
    65   2      28.966848324179931      6.6301854843730448      8.2783745453608031
    66   2      30.052484676640152      4.3541867548247986       6.438735348694137
    67   1      26.586331910614152      7.6011299430181793       5.725010529563372
    68   1      27.887989421572623      6.1613135920532445      9.4042889228967042
    69   1      28.484078202813233      8.0084902390525681      7.5646497262300372
    70   1     0.83127835781323101      5.0540700254218276      10.831742240436629
    71   1      29.100222805614152      5.4614303214562163      7.1524638471032986
    72   1     0.23518957657262174      6.9012466724211512      8.9921030437699621
    73   2      26.452957429179929      6.4323747801013527      15.636931332027469
    74   2      28.966848324179931      6.6301854843730448      13.797292135360802
    75   2      30.052484676640152      4.3541867548247986      11.957652938694141
    76   1      26.586331910614152      7.6011299430181793      11.243928119563369
    77   1      27.887989421572623      6.1613135920532445      14.923206512896703
    78   1      28.484078202813233      8.0084902390525681      13.083567316230036
    79   1     0.83127835781323101      5.0540700254218276       16.35065983043663
    80   1      29.100222805614152      5.4614303214562163      12.671381437103296
    81   1     0.23518957657262174      6.9012466724211512      14.511020633769963
    82   2      26.452957429179929      6.4323747801013527       21.15584892202747
    83   2      28.966848324179931      6.6301854843730448      19.316209725360803
    84   2      30.052484676640152      4.3541867548247986      17.476570528694136
    85   1      26.586331910614152      7.6011299430181793      16.762845709563369
    86   1      27.887989421572623      6.1613135920532445      20.442124102896702
    87   1      28.484078202813233      8.0084902390525681      18.602484906230035
    88   1     0.83127835781323101      5.0540700254218276      21.869577420436627
    89   1      29.100222805614152      5.4614303214562163      18.190299027103297
    90   1     0.23518957657262174      6.9012466724211512       20.02993822376996
    91   2      26.452957429179929      6.4323747801013527      26.674766512027471
    92   2      28.966848324179931      6.6301854843730448      24.835127315360804
    93   2      30.052484676640152      4.3541867548247986      22.995488118694137
    94   1      26.586331910614152      7.6011299430181793      22.281763299563369
    95   1      27.887989421572623      6.1613135920532445      25.961041692896707
    96   1      28.484078202813233      8.0084902390525681      24.121402496230044
    97   1     0.83127835781323101      5.0540700254218276      27.388495010436635
    98   1      29.100222805614152      5.4614303214562163      23.709216617103298
    99   1     0.23518957657262174      6.9012466724211512      25.548855813769968
   100   2      26.452957429179929      6.4323747801013527      32.193684102027468
   101   2      28.966848324179931      6.6301854843730448      30.354044905360805
   102   2      30.052484676640152      4.3541867548247986      28.514405708694138
   103   1      26.586331910614152      7.6011299430181793       27.80068088956337
   104   1      27.887989421572623      6.1613135920532445      31.479959282896704
   105   1      28.484078202813233      8.0084902390525681      29.640320086230037
   106   1     0.83127835781323101      5.0540700254218276      32.907412600436629
   107   1      29.100222805614152      5.4614303214562163      29.228134207103299
   108   1     0.23518957657262174      6.9012466724211512      31.067773403769962
   109   2      23.939066534179929       10.78656153492615        4.59909615202747
   110   2      26.452957429179929      10.984372239197844       2.759456955360803
   111   2      27.538593781640156      8.7083735096495971     0.91981775869413684
   112   1      24.072441015614157       11.95531669784298     0.20609293956337008
   113   1      25.374098526572627      10.515500346878044      3.8853713328967032
   114   1      25.970187307813237      12.362676993877368      2.0457321362300367
   115   1      28.484078202813233      9.4082567802466261      5.3128246504366299
   116   1      26.586331910614152      9.8156170762810149      1.6335462571032966
   117   1      27.887989421572623      11.255433427245951      3.4731854537699629
   118   2      23.939066534179929       10.78656153492615       10.11801374202747
   119   2      26.452957429179929      10.984372239197844      8.2783745453608031
   120   2      27.538593781640156      8.7083735096495971       6.438735348694137
   121   1      24.072441015614157       11.95531669784298       5.725010529563372
   122   1      25.374098526572627      10.515500346878044      9.4042889228967042
   123   1      25.970187307813237      12.362676993877368      7.5646497262300372
   124   1      28.484078202813233      9.4082567802466261      10.831742240436629
   125   1      26.586331910614152      9.8156170762810149      7.1524638471032986
   126   1      27.887989421572623      11.255433427245951      8.9921030437699621
   127   2      23.939066534179929       10.78656153492615      15.636931332027469
   128   2      26.452957429179929      10.984372239197844      13.797292135360802
   129   2      27.538593781640156      8.7083735096495971      11.957652938694141
   130   1      24.072441015614157       11.95531669784298      11.243928119563369
   131   1      25.374098526572627      10.515500346878044      14.923206512896703
   132   1      25.970187307813237      12.362676993877368      13.083567316230036
   133   1      28.484078202813233      9.4082567802466261       16.35065983043663
   134   1      26.586331910614152      9.8156170762810149      12.671381437103296
   135   1      27.887989421572623      11.255433427245951      14.511020633769963
   136   2      23.939066534179929       10.78656153492615       21.15584892202747
   137   2      26.452957429179929      10.984372239197844      19.316209725360803
   138   2      27.538593781640156      8.7083735096495971      17.476570528694136
   139   1      24.072441015614157       11.95531669784298      16.762845709563369
   140   1      25.374098526572627      10.515500346878044      20.442124102896702
   141   1      25.970187307813237      12.362676993877368      18.602484906230035
   142   1      28.484078202813233      9.4082567802466261      21.869577420436627
   143   1      26.586331910614152      9.8156170762810149      18.190299027103297
   144   1      27.887989421572623      11.255433427245951       20.02993822376996
   145   2      23.939066534179929       10.78656153492615      26.674766512027471
   146   2      26.452957429179929      10.984372239197844      24.835127315360804
   147   2      27.538593781640156      8.7083735096495971      22.995488118694137
   148   1      24.072441015614157       11.95531669784298      22.281763299563369
   149   1      25.374098526572627      10.515500346878044      25.961041692896707
   150   1      25.970187307813237      12.362676993877368      24.121402496230044
   151   1      28.484078202813233      9.4082567802466261      27.388495010436635
   152   1      26.586331910614152      9.8156170762810149      23.709216617103298
   153   1      27.887989421572623      11.255433427245951      25.548855813769968
   154   2      23.939066534179929       10.78656153492615      32.193684102027468
   155   2      26.452957429179929      10.984372239197844      30.354044905360805
   156   2      27.538593781640156      8.7083735096495971      28.514405708694138
   157   1      24.072441015614157       11.95531669784298       27.80068088956337
   158   1      25.374098526572627      10.515500346878044      31.479959282896704
   159   1      25.970187307813237      12.362676993877368      29.640320086230037
   160   1      28.484078202813233      9.4082567802466261      32.907412600436629
   161   1      26.586331910614152      9.8156170762810149      29.228134207103299
   162   1      27.887989421572623      11.255433427245951      31.067773403769962
   163   2      21.425175639179933      15.140748289750951        4.59909615202747
   164   2      23.939066534179933      15.338558994022645       2.759456955360803
   165   2      25.024702886640156      13.062560264474396     0.91981775869413684
   166   1      21.558550120614157      16.309503452667776     0.20609293956337008
   167   1      22.860207631572624      14.869687101702844      3.8853713328967032
   168   1      23.456296412813238      16.716863748702167      2.0457321362300367
   169   1      25.970187307813237      13.762443535071425      5.3128246504366299
   170   1      24.072441015614157      14.169803831105815      1.6335462571032966
   171   1      25.374098526572627      15.609620182070751      3.4731854537699629
   172   2      21.425175639179933      15.140748289750951       10.11801374202747
   173   2      23.939066534179933      15.338558994022645      8.2783745453608031
   174   2      25.024702886640156      13.062560264474396       6.438735348694137
   175   1      21.558550120614157      16.309503452667776       5.725010529563372
   176   1      22.860207631572624      14.869687101702844      9.4042889228967042
   177   1      23.456296412813238      16.716863748702167      7.5646497262300372
   178   1      25.970187307813237      13.762443535071425      10.831742240436629
   179   1      24.072441015614157      14.169803831105815      7.1524638471032986
   180   1      25.374098526572627      15.609620182070751      8.9921030437699621
   181   2      21.425175639179933      15.140748289750951      15.636931332027469
   182   2      23.939066534179933      15.338558994022645      13.797292135360802
   183   2      25.024702886640156      13.062560264474396      11.957652938694141
   184   1      21.558550120614157      16.309503452667776      11.243928119563369
   185   1      22.860207631572624      14.869687101702844      14.923206512896703
   186   1      23.456296412813238      16.716863748702167      13.083567316230036
   187   1      25.970187307813237      13.762443535071425       16.35065983043663
   188   1      24.072441015614157      14.169803831105815      12.671381437103296
   189   1      25.374098526572627      15.609620182070751      14.511020633769963
   190   2      21.425175639179933      15.140748289750951       21.15584892202747
   191   2      23.939066534179933      15.338558994022645      19.316209725360803
   192   2      25.024702886640156      13.062560264474396      17.476570528694136
   193   1      21.558550120614157      16.309503452667776      16.762845709563369
   194   1      22.860207631572624      14.869687101702844      20.442124102896702
   195   1      23.456296412813238      16.716863748702167      18.602484906230035
   196   1      25.970187307813237      13.762443535071425      21.869577420436627
   197   1      24.072441015614157      14.169803831105815      18.190299027103297
   198   1      25.374098526572627      15.609620182070751       20.02993822376996
   199   2      21.425175639179933      15.140748289750951      26.674766512027471
   200   2      23.939066534179933      15.338558994022645      24.835127315360804
   201   2      25.024702886640156      13.062560264474396      22.995488118694137
   202   1      21.558550120614157      16.309503452667776      22.281763299563369
   203   1      22.860207631572624      14.869687101702844      25.961041692896707
   204   1      23.456296412813238      16.716863748702167      24.121402496230044
   205   1      25.970187307813237      13.762443535071425      27.388495010436635
   206   1      24.072441015614157      14.169803831105815      23.709216617103298
   207   1      25.374098526572627      15.609620182070751      25.548855813769968
   208   2      21.425175639179933      15.140748289750951      32.193684102027468
   209   2      23.939066534179933      15.338558994022645      30.354044905360805
   210   2      25.024702886640156      13.062560264474396      28.514405708694138
   211   1      21.558550120614157      16.309503452667776       27.80068088956337
   212   1      22.860207631572624      14.869687101702844      31.479959282896704
   213   1      23.456296412813238      16.716863748702167      29.640320086230037
   214   1      25.970187307813237      13.762443535071425      32.907412600436629
   215   1      24.072441015614157      14.169803831105815      29.228134207103299
   216   1      25.374098526572627      15.609620182070751      31.067773403769962
   217   2      18.911284744179937      19.494935044575751        4.59909615202747
   218   2      21.425175639179933       19.69274574884744       2.759456955360803
   219   2      22.510811991640157      17.416747019299194     0.91981775869413684
   220   1      19.044659225614161      20.663690207492575     0.20609293956337008
   221   1      20.346316736572625      19.223873856527639      3.8853713328967032
   222   1      20.942405517813235      21.071050503526966      2.0457321362300367
   223   1      23.456296412813238      18.116630289896225      5.3128246504366299
   224   1      21.558550120614161      18.523990585930612      1.6335462571032966
   225   1      22.860207631572624      19.963806936895551      3.4731854537699629
   226   2      18.911284744179937      19.494935044575751       10.11801374202747
   227   2      21.425175639179933       19.69274574884744      8.2783745453608031
   228   2      22.510811991640157      17.416747019299194       6.438735348694137
   229   1      19.044659225614161      20.663690207492575       5.725010529563372
   230   1      20.346316736572625      19.223873856527639      9.4042889228967042
   231   1      20.942405517813235      21.071050503526966      7.5646497262300372
   232   1      23.456296412813238      18.116630289896225      10.831742240436629
   233   1      21.558550120614161      18.523990585930612      7.1524638471032986
   234   1      22.860207631572624      19.963806936895551      8.9921030437699621
   235   2      18.911284744179937      19.494935044575751      15.636931332027469
   236   2      21.425175639179933       19.69274574884744      13.797292135360802
   237   2      22.510811991640157      17.416747019299194      11.957652938694141
   238   1      19.044659225614161      20.663690207492575      11.243928119563369
   239   1      20.346316736572625      19.223873856527639      14.923206512896703
   240   1      20.942405517813235      21.071050503526966      13.083567316230036
   241   1      23.456296412813238      18.116630289896225       16.35065983043663
   242   1      21.558550120614161      18.523990585930612      12.671381437103296
   243   1      22.860207631572624      19.963806936895551      14.511020633769963
   244   2      18.911284744179937      19.494935044575751       21.15584892202747
   245   2      21.425175639179933       19.69274574884744      19.316209725360803
   246   2      22.510811991640157      17.416747019299194      17.476570528694136
   247   1      19.044659225614161      20.663690207492575      16.762845709563369
   248   1      20.346316736572625      19.223873856527639      20.442124102896702
   249   1      20.942405517813235      21.071050503526966      18.602484906230035
   250   1      23.456296412813238      18.116630289896225      21.869577420436627
   251   1      21.558550120614161      18.523990585930612      18.190299027103297
   252   1      22.860207631572624      19.963806936895551       20.02993822376996
   253   2      18.911284744179937      19.494935044575751      26.674766512027471
   254   2      21.425175639179933       19.69274574884744      24.835127315360804
   255   2      22.510811991640157      17.416747019299194      22.995488118694137
   256   1      19.044659225614161      20.663690207492575      22.281763299563369
   257   1      20.346316736572625      19.223873856527639      25.961041692896707
   258   1      20.942405517813235      21.071050503526966      24.121402496230044
   259   1      23.456296412813238      18.116630289896225      27.388495010436635
   260   1      21.558550120614161      18.523990585930612      23.709216617103298
   261   1      22.860207631572624      19.963806936895551      25.548855813769968
   262   2      18.911284744179937      19.494935044575751      32.193684102027468
   263   2      21.425175639179933       19.69274574884744      30.354044905360805
   264   2      22.510811991640157      17.416747019299194      28.514405708694138
   265   1      19.044659225614161      20.663690207492575       27.80068088956337
   266   1      20.346316736572625      19.223873856527639      31.479959282896704
   267   1      20.942405517813235      21.071050503526966      29.640320086230037
   268   1      23.456296412813238      18.116630289896225      32.907412600436629
   269   1      21.558550120614161      18.523990585930612      29.228134207103299
   270   1      22.860207631572624      19.963806936895551      31.067773403769962
   271   2      16.397393849179931       23.84912179940055        4.59909615202747
   272   2      18.911284744179934      24.046932503672238       2.759456955360803
   273   2      19.996921096640158      21.770933774123993     0.91981775869413684
   274   1      16.530768330614158      25.017876962317374     0.20609293956337008
   275   1      17.832425841572629      23.578060611352438      3.8853713328967032
   276   1      18.428514622813239      25.425237258351764      2.0457321362300367
   277   1      20.942405517813242      22.470817044721024      5.3128246504366299
   278   1      19.044659225614154      22.878177340755414      1.6335462571032966
   279   1      20.346316736572629       24.31799369172035      3.4731854537699629
   280   2      16.397393849179931       23.84912179940055       10.11801374202747
   281   2      18.911284744179934      24.046932503672238      8.2783745453608031
   282   2      19.996921096640158      21.770933774123993       6.438735348694137
   283   1      16.530768330614158      25.017876962317374       5.725010529563372
   284   1      17.832425841572629      23.578060611352438      9.4042889228967042
   285   1      18.428514622813239      25.425237258351764      7.5646497262300372
   286   1      20.942405517813242      22.470817044721024      10.831742240436629
   287   1      19.044659225614154      22.878177340755414      7.1524638471032986
   288   1      20.346316736572629       24.31799369172035      8.9921030437699621
   289   2      16.397393849179931       23.84912179940055      15.636931332027469
   290   2      18.911284744179934      24.046932503672238      13.797292135360802
   291   2      19.996921096640158      21.770933774123993      11.957652938694141
   292   1      16.530768330614158      25.017876962317374      11.243928119563369
   293   1      17.832425841572629      23.578060611352438      14.923206512896703
   294   1      18.428514622813239      25.425237258351764      13.083567316230036
   295   1      20.942405517813242      22.470817044721024       16.35065983043663
   296   1      19.044659225614154      22.878177340755414      12.671381437103296
   297   1      20.346316736572629       24.31799369172035      14.511020633769963
   298   2      16.397393849179931       23.84912179940055       21.15584892202747
   299   2      18.911284744179934      24.046932503672238      19.316209725360803
   300   2      19.996921096640158      21.770933774123993      17.476570528694136
   301   1      16.530768330614158      25.017876962317374      16.762845709563369
   302   1      17.832425841572629      23.578060611352438      20.442124102896702
   303   1      18.428514622813239      25.425237258351764      18.602484906230035
   304   1      20.942405517813242      22.470817044721024      21.869577420436627
   305   1      19.044659225614154      22.878177340755414      18.190299027103297
   306   1      20.346316736572629       24.31799369172035       20.02993822376996
   307   2      16.397393849179931       23.84912179940055      26.674766512027471
   308   2      18.911284744179934      24.046932503672238      24.835127315360804
   309   2      19.996921096640158      21.770933774123993      22.995488118694137
   310   1      16.530768330614158      25.017876962317374      22.281763299563369
   311   1      17.832425841572629      23.578060611352438      25.961041692896707
   312   1      18.428514622813239      25.425237258351764      24.121402496230044
   313   1      20.942405517813242      22.470817044721024      27.388495010436635
   314   1      19.044659225614154      22.878177340755414      23.709216617103298
   315   1      20.346316736572629       24.31799369172035      25.548855813769968
   316   2      16.397393849179931       23.84912179940055      32.193684102027468
   317   2      18.911284744179934      24.046932503672238      30.354044905360805
   318   2      19.996921096640158      21.770933774123993      28.514405708694138
   319   1      16.530768330614158      25.017876962317374       27.80068088956337
   320   1      17.832425841572629      23.578060611352438      31.479959282896704
   321   1      18.428514622813239      25.425237258351764      29.640320086230037
   322   1      20.942405517813242      22.470817044721024      32.907412600436629
   323   1      19.044659225614154      22.878177340755414      29.228134207103299
   324   1      20.346316736572629       24.31799369172035      31.067773403769962
   325   2      13.883502954179937      28.203308554225345        4.59909615202747
   326   2      16.397393849179938       28.40111925849704       2.759456955360803
   327   2      17.483030201640162      26.125120528948791     0.91981775869413684
   328   1      14.016877435614161      29.372063717142172     0.20609293956337008
   329   1       15.31853494657263      27.932247366177236      3.8853713328967032
   330   1      15.914623727813238      29.779424013176566      2.0457321362300367
   331   1      18.428514622813243      26.825003799545819      5.3128246504366299
   332   1      16.530768330614158      27.232364095580216      1.6335462571032966
   333   1      17.832425841572629      28.672180446545152      3.4731854537699629
   334   2      13.883502954179937      28.203308554225345       10.11801374202747
   335   2      16.397393849179938       28.40111925849704      8.2783745453608031
   336   2      17.483030201640162      26.125120528948791       6.438735348694137
   337   1      14.016877435614161      29.372063717142172       5.725010529563372
   338   1       15.31853494657263      27.932247366177236      9.4042889228967042
   339   1      15.914623727813238      29.779424013176566      7.5646497262300372
   340   1      18.428514622813243      26.825003799545819      10.831742240436629
   341   1      16.530768330614158      27.232364095580216      7.1524638471032986
   342   1      17.832425841572629      28.672180446545152      8.9921030437699621
   343   2      13.883502954179937      28.203308554225345      15.636931332027469
   344   2      16.397393849179938       28.40111925849704      13.797292135360802
   345   2      17.483030201640162      26.125120528948791      11.957652938694141
   346   1      14.016877435614161      29.372063717142172      11.243928119563369
   347   1       15.31853494657263      27.932247366177236      14.923206512896703
   348   1      15.914623727813238      29.779424013176566      13.083567316230036
   349   1      18.428514622813243      26.825003799545819       16.35065983043663
   350   1      16.530768330614158      27.232364095580216      12.671381437103296
   351   1      17.832425841572629      28.672180446545152      14.511020633769963
   352   2      13.883502954179937      28.203308554225345       21.15584892202747
   353   2      16.397393849179938       28.40111925849704      19.316209725360803
   354   2      17.483030201640162      26.125120528948791      17.476570528694136
   355   1      14.016877435614161      29.372063717142172      16.762845709563369
   356   1       15.31853494657263      27.932247366177236      20.442124102896702
   357   1      15.914623727813238      29.779424013176566      18.602484906230035
   358   1      18.428514622813243      26.825003799545819      21.869577420436627
   359   1      16.530768330614158      27.232364095580216      18.190299027103297